version 2
run General-0-20180512-15:45:09-6585
attr configname General
attr datetime 20180512-15:45:09
attr experiment General
attr inifile omnetpp.ini
attr iterationvars ""
attr iterationvarsf ""
attr measurement ""
attr network Network
attr processid 6585
attr repetition 0
attr replication #0
attr resultdir results
attr runnumber 0
attr seedset 0

vector 0 Network.backbone0 HopCount ETV
vector 1 Network.backbone0 "" ETV
vector 2 Network.edge2 HopCount ETV
vector 3 Network.edge2 "" ETV
vector 4 Network.backbone4 HopCount ETV
vector 5 Network.backbone4 "" ETV
vector 6 Network.edge1 HopCount ETV
vector 7 Network.edge1 "" ETV
vector 8 Network.backbone3 HopCount ETV
vector 9 Network.backbone3 "" ETV
vector 10 Network.backbone1 HopCount ETV
vector 11 Network.backbone1 "" ETV
vector 12 Network.backbone2 HopCount ETV
vector 13 Network.backbone2 "" ETV
vector 14 Network.edge0 HopCount ETV
vector 15 Network.edge0 "" ETV
0	1	0	0
0	113	0.112	1
0	222	0.221	4
0	443	0.442	1
0	506	0.505	10
0	797	0.796	1
0	987	0.986	1
0	1175	1.174	12
0	1609	1.608	1
0	1611	1.61	2
0	1628	1.627	9
0	1630	1.629	2
0	1639	1.638	9
0	1665	1.664	2
0	1772	1.771	4
0	2012	2.011	15
0	2045	2.044	14
0	2184	2.183	6
0	2186	2.185	1
0	2216	2.215	27
0	2365	2.364	1
0	2424	2.423	8
0	2609	2.608	1
0	2747	2.746	1
0	2836	2.835	6
0	2967	2.966	1
0	3037	3.036	7
0	3051	3.05	9
0	3217	3.216	1
0	3384	3.383	1
0	3498	3.497	4
0	3539	3.538	22
0	3558	3.557	19
0	3568	3.567	9
0	3610	3.609	5
0	3634	3.633	3
0	3856	3.855	1
0	3982	3.981	5
0	4109	4.108	12
0	4204	4.203	4
0	4373	4.372	4
0	4494	4.493	19
0	4623	4.622	1
0	4672	4.671	1
0	4696	4.695	14
0	4702	4.701	5
0	4778	4.777	17
0	4867	4.866	16
0	4885	4.884	18
0	5492	5.491	6
0	5653	5.652	6
0	5726	5.725	9
0	5788	5.787	11
0	5797	5.796	3
0	5922	5.921	1
0	6061	6.06	24
0	6411	6.41	1
0	6886	6.885	31
0	6892	6.891	1
0	6904	6.903	1
0	7074	7.073	2
0	7126	7.125	7
0	7274	7.273	2
0	7507	7.506	5
0	7618	7.617	10
0	7632	7.631	14
0	7634	7.633	2
0	7664	7.663	1
0	7878	7.877	6
0	8240	8.239	8
0	8613	8.612	3
0	8650	8.649	1
0	8719	8.718	5
0	8841	8.84	16
0	8852	8.851	11
0	8856	8.855	1
0	9022	9.021	1
0	9024	9.023	2
0	9553	9.552	4
0	9653	9.652	10
0	10035	10.034	4
0	10037	10.036	2
0	10064	10.063	1
0	10091	10.09	5
0	10337	10.336	1
0	10387	10.386	8
0	10484	10.483	1
0	10518	10.517	1
0	10746	10.745	17
0	10839	10.838	50
0	10922	10.921	10
0	11020	11.019	12
0	11039	11.038	9
0	11202	11.201	8
0	11345	11.344	1
0	11600	11.599	5
0	11616	11.615	3
0	11806	11.805	13
0	11808	11.807	2
0	11818	11.817	10
0	11965	11.964	8
0	12179	12.178	14
0	12283	12.282	8
0	12285	12.284	2
0	12291	12.29	6
0	12410	12.409	5
0	12488	12.487	5
0	12697	12.696	12
0	12775	12.774	1
0	12777	12.776	1
0	12948	12.947	11
0	12968	12.967	4
0	13145	13.144	3
0	13343	13.342	2
0	13470	13.469	3
0	13606	13.605	7
0	13627	13.626	2
0	13753	13.752	1
0	13819	13.818	1
0	14175	14.174	22
0	14177	14.176	2
0	14297	14.296	1
0	14360	14.359	1
0	14572	14.571	2
0	14726	14.725	1
0	14843	14.842	8
0	14845	14.844	2
0	14886	14.885	17
0	14896	14.895	10
0	14921	14.92	9
0	14956	14.955	1
0	15091	15.09	9
0	15366	15.365	3
0	15385	15.384	1
0	15571	15.57	3
0	15589	15.588	1
0	15598	15.597	9
0	15656	15.655	7
0	15709	15.708	11
0	15720	15.719	5
0	15783	15.782	1
0	15839	15.838	6
0	15963	15.962	1
0	16049	16.048	5
0	16121	16.12	5
0	16170	16.169	6
0	16219	16.218	27
0	16232	16.231	13
0	16274	16.273	12
0	16278	16.277	3
0	16280	16.279	2
0	16342	16.341	1
0	16404	16.403	5
0	16588	16.587	7
0	16775	16.774	6
0	17127	17.126	11
0	17180	17.179	1
0	17504	17.503	2
0	17687	17.686	5
0	17748	17.747	10
0	17846	17.845	6
0	17848	17.847	2
0	18254	18.253	13
0	18325	18.324	1
0	18449	18.448	1
0	18530	18.529	4
0	18879	18.878	1
0	18881	18.88	1
0	19090	19.089	1
0	19141	19.14	7
0	19233	19.232	2
0	19441	19.44	15
0	19507	19.506	21
0	19669	19.668	1
0	19723	19.722	5
0	19754	19.753	2
0	19822	19.821	5
0	19859	19.858	1
0	19884	19.883	8
0	20122	20.121	1
0	20165	20.164	14
0	20465	20.464	10
0	20524	20.523	7
0	20692	20.691	1
0	20965	20.964	1
0	21000	20.999	2
0	21169	21.168	6
0	21283	21.282	7
0	21428	21.427	5
0	21508	21.507	18
0	21622	21.621	1
0	21760	21.759	11
0	21929	21.928	13
0	22098	22.097	4
0	22202	22.201	31
0	22232	22.231	1
0	22277	22.276	2
0	22410	22.409	23
0	22469	22.468	3
0	22555	22.554	8
0	22700	22.699	1
0	22743	22.742	8
0	22843	22.842	8
0	23385	23.384	1
0	23391	23.39	6
0	23533	23.532	17
0	23596	23.595	7
0	23723	23.722	7
0	23757	23.756	2
0	23923	23.922	4
0	24057	24.056	7
0	24089	24.088	32
0	24099	24.098	1
0	24122	24.121	1
0	24157	24.156	14
0	24257	24.256	1
0	24279	24.278	5
0	24333	24.332	53
0	24437	24.436	7
0	24544	24.543	3
0	24687	24.686	1
0	24996	24.995	1
0	25045	25.044	7
0	25171	25.17	3
0	25184	25.183	5
0	25211	25.21	17
0	25307	25.306	9
0	25313	25.312	6
0	25328	25.327	6
0	25343	25.342	12
0	25390	25.389	3
0	25513	25.512	4
0	25630	25.629	16
0	25660	25.659	7
0	25942	25.941	20
0	26025	26.024	1
0	26049	26.048	6
0	26078	26.077	5
0	26240	26.239	4
0	26387	26.386	5
0	26399	26.398	7
0	26401	26.4	2
0	26423	26.422	8
0	26500	26.499	1
0	26561	26.56	4
0	26821	26.82	19
0	26942	26.941	8
0	27107	27.106	3
0	27117	27.116	10
0	27231	27.23	7
0	27241	27.24	10
0	27268	27.267	5
0	27286	27.285	3
0	27308	27.307	11
0	27412	27.411	12
0	27431	27.43	1
0	27659	27.658	18
0	27700	27.699	1
0	27896	27.895	16
0	27909	27.908	4
0	27915	27.914	1
0	27982	27.981	1
0	28120	28.119	1
0	28272	28.271	25
0	28308	28.307	10
0	28385	28.384	3
0	28409	28.408	1
0	28604	28.603	2
0	28812	28.811	1
0	28866	28.865	1
0	28908	28.907	13
0	28991	28.99	6
0	29064	29.063	6
0	29179	29.178	1
0	29300	29.299	5
0	29324	29.323	21
0	29604	29.603	18
0	29606	29.605	2
0	29695	29.694	1
0	29821	29.82	40
0	29870	29.869	3
0	29904	29.903	12
0	29989	29.988	27
0	30030	30.029	1
0	30147	30.146	5
0	30237	30.236	1
0	30273	30.272	31
0	30433	30.432	1
0	30589	30.588	1
0	30632	30.631	3
0	30641	30.64	1
0	30735	30.734	22
0	30803	30.802	2
0	30837	30.836	1
0	30944	30.943	5
0	31031	31.03	1
0	31169	31.168	8
0	31175	31.174	6
0	31285	31.284	3
0	31384	31.383	12
0	31435	31.434	1
0	31457	31.456	1
0	31895	31.894	1
0	31929	31.928	6
0	31931	31.93	2
0	32164	32.163	42
0	32168	32.167	3
0	32183	32.182	1
0	32330	32.329	6
0	32348	32.347	1
0	32428	32.427	1
0	32726	32.725	6
0	32824	32.823	1
0	32837	32.836	1
0	32875	32.874	1
0	33079	33.078	8
0	33244	33.243	8
0	33246	33.245	2
0	33248	33.247	2
0	33256	33.255	8
0	33295	33.294	6
0	33438	33.437	10
0	33442	33.441	4
0	33467	33.466	7
0	33595	33.594	3
0	33624	33.623	2
0	33657	33.656	15
0	33895	33.894	2
0	33963	33.962	10
0	33969	33.968	6
0	34210	34.209	1
0	34361	34.36	1
0	34820	34.819	5
0	34852	34.851	24
0	34897	34.896	26
0	34929	34.928	1
0	34931	34.93	2
0	34950	34.949	6
0	34960	34.959	6
0	34996	34.995	1
0	35136	35.135	3
0	35146	35.145	1
0	35224	35.223	10
0	35271	35.27	1
0	35461	35.46	4
0	35465	35.464	4
0	35544	35.543	4
0	35546	35.545	2
0	35586	35.585	7
0	35635	35.634	10
0	35637	35.636	2
0	35812	35.811	1
0	35857	35.856	6
0	35882	35.881	1
0	35897	35.896	4
0	36010	36.009	7
0	36177	36.176	14
0	36212	36.211	5
0	36222	36.221	10
0	36224	36.223	2
0	36280	36.279	1
0	36309	36.308	7
0	36311	36.31	2
0	36358	36.357	15
0	36365	36.364	1
0	36559	36.558	1
0	36563	36.562	4
0	36602	36.601	1
0	36623	36.622	6
0	37100	37.099	1
0	37109	37.108	9
0	37137	37.136	4
0	37186	37.185	7
0	37544	37.543	3
0	37610	37.609	20
0	37612	37.611	1
0	37628	37.627	3
0	37856	37.855	6
0	37858	37.857	2
0	38009	38.008	2
0	38076	38.075	1
0	38434	38.433	1
0	38521	38.52	3
0	38527	38.526	3
0	38580	38.579	9
0	38674	38.673	3
0	38680	38.679	4
0	38793	38.792	4
0	38902	38.901	10
0	39241	39.24	12
0	39275	39.274	1
0	39295	39.294	8
0	39307	39.306	11
0	39353	39.352	14
0	39364	39.363	8
0	39368	39.367	1
0	39473	39.472	1
0	39527	39.526	1
0	39685	39.684	30
0	39717	39.716	13
0	39725	39.724	8
0	39740	39.739	4
0	39885	39.884	7
0	40148	40.147	1
0	40150	40.149	1
0	40306	40.305	2
0	40320	40.319	11
0	40522	40.521	3
0	40541	40.54	5
0	40749	40.748	12
0	40753	40.752	4
0	40773	40.772	5
0	40803	40.802	6
0	40867	40.866	11
0	40893	40.892	8
0	40911	40.91	6
0	41083	41.082	7
0	41123	41.122	12
0	41144	41.143	5
0	41195	41.194	10
0	41222	41.221	4
0	41348	41.347	1
0	41639	41.638	2
0	41900	41.899	12
0	41902	41.901	2
0	42046	42.045	8
0	42255	42.254	10
0	42412	42.411	1
0	42583	42.582	7
0	42858	42.857	3
0	43030	43.029	3
0	43034	43.033	4
0	43119	43.118	11
0	43172	43.171	1
0	43272	43.271	1
0	43728	43.727	1
0	43748	43.747	1
0	43750	43.749	2
0	43915	43.914	3
0	43925	43.924	6
0	44030	44.029	1
0	44050	44.049	1
0	44166	44.165	8
0	44367	44.366	6
0	44521	44.52	3
0	44562	44.561	1
0	44637	44.636	8
0	44994	44.993	1
0	44996	44.995	2
0	45004	45.003	7
0	45018	45.017	14
0	45143	45.142	1
0	45168	45.167	1
0	45238	45.237	2
0	45275	45.274	1
0	45336	45.335	1
0	45344	45.343	8
0	45469	45.468	3
0	45645	45.644	1
0	45856	45.855	1
0	45858	45.857	2
0	45886	45.885	19
0	45894	45.893	2
0	46010	46.009	4
0	46270	46.269	23
0	46287	46.286	17
0	46409	46.408	3
0	46529	46.528	1
0	46594	46.593	1
0	46664	46.663	1
0	46702	46.701	13
0	46812	46.811	1
0	46867	46.866	1
0	46869	46.868	2
0	46890	46.889	8
0	46981	46.98	1
0	47078	47.077	9
0	47181	47.18	11
0	47395	47.394	13
0	47511	47.51	20
0	47560	47.559	25
0	47610	47.609	3
0	47726	47.725	10
0	47763	47.762	4
0	47825	47.824	1
0	48060	48.059	1
0	48064	48.063	4
0	48212	48.211	7
0	48280	48.279	7
0	48413	48.412	10
0	48725	48.724	1
0	48727	48.726	2
0	48747	48.746	7
0	48749	48.748	2
0	48772	48.771	3
0	49072	49.071	1
0	49457	49.456	8
0	49507	49.506	7
0	49664	49.663	7
0	49803	49.802	6
0	49934	49.933	12
0	50009	50.008	5
0	50094	50.093	45
0	50155	50.154	11
0	50157	50.156	2
0	50447	50.446	4
0	50449	50.448	2
0	50504	50.503	12
0	50625	50.624	1
0	50627	50.626	2
0	50658	50.657	7
0	50707	50.706	4
0	50853	50.852	6
0	50891	50.89	4
0	50903	50.902	5
0	50970	50.969	2
0	50991	50.99	1
0	51051	51.05	6
0	51107	51.106	1
0	51164	51.163	2
0	51196	51.195	1
0	51218	51.217	1
0	51259	51.258	6
0	51290	51.289	7
0	51292	51.291	2
0	51417	51.416	8
0	51477	51.476	9
0	51498	51.497	8
0	51507	51.506	1
0	51593	51.592	8
0	51785	51.784	1
0	51791	51.79	6
0	51978	51.977	19
0	52031	52.03	11
0	52063	52.062	1
0	52245	52.244	8
0	52277	52.276	6
0	52279	52.278	1
0	53168	53.167	1
0	53343	53.342	4
0	53364	53.363	9
0	53452	53.451	1
0	53834	53.833	1
0	53867	53.866	11
0	53869	53.868	2
0	53989	53.988	30
0	54199	54.198	14
0	54344	54.343	10
0	54445	54.444	1
0	54841	54.84	1
0	54993	54.992	1
0	55198	55.197	3
0	55245	55.244	4
0	55455	55.454	1
0	55457	55.456	2
0	55648	55.647	1
0	55650	55.649	2
0	55801	55.8	1
0	55979	55.978	10
0	55985	55.984	6
0	56184	56.183	9
0	56373	56.372	7
0	56574	56.573	1
0	56718	56.717	4
0	56806	56.805	3
0	56855	56.854	3
0	56911	56.91	2
0	57073	57.072	10
0	57155	57.154	8
0	57202	57.201	7
0	57345	57.344	8
0	57360	57.359	1
0	57464	57.463	7
0	57468	57.467	1
0	57522	57.521	3
0	57644	57.643	5
0	57669	57.668	2
0	57728	57.727	47
0	57730	57.729	2
0	57845	57.844	12
0	57941	57.94	17
0	57973	57.972	11
0	58113	58.112	3
0	58226	58.225	31
0	58319	58.318	4
0	58446	58.445	11
0	58461	58.46	15
0	59049	59.048	2
0	59169	59.168	1
0	59318	59.317	2
0	59320	59.319	2
0	59363	59.362	1
0	59439	59.438	11
0	59550	59.549	10
0	59611	59.61	6
0	59613	59.612	2
0	59617	59.616	4
0	59638	59.637	8
0	59718	59.717	4
0	59757	59.756	10
0	59814	59.813	13
0	59823	59.822	2
0	59896	59.895	4
0	59909	59.908	7
0	59960	59.959	1
0	60017	60.016	16
0	60043	60.042	4
0	60568	60.567	15
0	60575	60.574	7
0	60612	60.611	3
0	60996	60.995	1
0	61028	61.027	2
0	61563	61.562	1
0	61726	61.725	13
0	61791	61.79	4
0	61800	61.799	9
0	61814	61.813	11
0	62033	62.032	7
0	62063	62.062	4
0	62265	62.264	1
0	62413	62.412	3
0	62480	62.479	6
0	63013	63.012	30
0	63025	63.024	3
0	63027	63.026	2
0	63029	63.028	2
0	63033	63.032	4
0	63166	63.165	7
0	63247	63.246	3
0	63279	63.278	9
0	63620	63.619	1
0	63730	63.729	4
0	63734	63.733	4
0	63775	63.774	1
0	63889	63.888	1
0	63925	63.924	2
0	63947	63.946	2
0	64025	64.024	5
0	64602	64.601	12
0	64716	64.715	12
0	64722	64.721	6
0	64742	64.741	14
0	64930	64.929	6
0	65306	65.305	10
0	65503	65.502	8
0	65827	65.826	5
0	65904	65.903	1
0	65958	65.957	6
0	66019	66.018	2
0	66195	66.194	2
0	66379	66.378	41
0	66513	66.512	15
0	66524	66.523	5
0	66565	66.564	4
0	66670	66.669	15
0	66678	66.677	8
0	66682	66.681	4
0	66718	66.717	14
0	66750	66.749	12
0	66808	66.807	2
0	66954	66.953	2
0	67000	66.999	18
0	67287	67.286	13
0	67478	67.477	4
0	67680	67.679	4
0	67900	67.899	6
0	68582	68.581	11
0	69060	69.059	3
0	69094	69.093	15
0	69257	69.256	15
0	69277	69.276	20
0	69354	69.353	8
0	69468	69.467	2
0	69597	69.596	4
0	69702	69.701	15
0	69721	69.72	19
0	69853	69.852	2
0	69916	69.915	1
0	69929	69.928	2
0	69937	69.936	2
0	70007	70.006	5
0	70009	70.008	2
0	70112	70.111	11
0	70360	70.359	1
0	70594	70.593	12
0	70844	70.843	3
0	71126	71.125	13
0	71275	71.274	1
0	71360	71.359	10
0	71453	71.452	1
0	71656	71.655	16
0	71812	71.811	7
0	71850	71.849	7
0	71864	71.863	14
0	71888	71.887	12
0	72005	72.004	4
0	72023	72.022	2
0	72031	72.03	3
0	72110	72.109	4
0	72130	72.129	1
0	72147	72.146	2
0	72173	72.172	7
0	72175	72.174	2
0	72249	72.248	2
0	72398	72.397	7
0	72437	72.436	8
0	72462	72.461	22
0	72561	72.56	13
0	72563	72.562	2
0	72731	72.73	4
0	72783	72.782	1
0	72936	72.935	8
0	73251	73.25	1
0	73253	73.252	2
0	73356	73.355	1
0	73444	73.443	1
0	73473	73.472	26
0	73503	73.502	2
0	73640	73.639	2
0	73652	73.651	10
0	73682	73.681	2
0	73684	73.683	2
0	73782	73.781	1
0	73896	73.895	1
0	73952	73.951	4
0	74090	74.089	8
0	74161	74.16	14
0	74181	74.18	20
0	74205	74.204	3
0	74397	74.396	12
0	74410	74.409	10
0	74415	74.414	4
0	74630	74.629	4
0	74706	74.705	1
0	74785	74.784	8
0	74926	74.925	10
0	74992	74.991	1
0	74994	74.993	2
0	75094	75.093	1
0	75106	75.105	1
0	75293	75.292	1
0	75327	75.326	2
0	75618	75.617	4
0	75672	75.671	5
0	75985	75.984	7
0	76021	76.02	12
0	76168	76.167	1
0	76289	76.288	16
0	76311	76.31	2
0	76481	76.48	1
0	76612	76.611	5
0	76620	76.619	8
0	76813	76.812	23
0	76928	76.927	1
0	76958	76.957	1
0	76996	76.995	4
0	77010	77.009	14
0	77099	77.098	5
0	77265	77.264	1
0	77281	77.28	1
0	77395	77.394	1
0	77434	77.433	10
0	77465	77.464	1
0	77467	77.466	2
0	77546	77.545	13
0	77640	77.639	1
0	77794	77.793	1
0	77935	77.934	18
0	77959	77.958	12
0	77984	77.983	4
0	78274	78.273	15
0	78554	78.553	9
0	78570	78.569	9
0	78580	78.579	1
0	78878	78.877	7
0	78885	78.884	7
0	78887	78.886	2
0	79024	79.023	2
0	79053	79.052	10
0	79068	79.067	15
0	79198	79.197	1
0	79266	79.265	4
0	79424	79.423	2
0	79506	79.505	19
0	79533	79.532	5
0	79535	79.534	2
0	79574	79.573	7
0	79576	79.575	2
0	79578	79.577	2
0	79876	79.875	1
0	79889	79.888	3
0	79964	79.963	1
0	79974	79.973	8
0	80106	80.105	1
0	80173	80.172	1
0	80324	80.323	24
0	80597	80.596	5
0	80672	80.671	1
0	80879	80.878	25
0	80954	80.953	17
0	81007	81.006	32
0	81324	81.323	10
0	81331	81.33	7
0	81584	81.583	20
0	81663	81.662	26
0	81728	81.727	6
0	82048	82.047	16
0	82124	82.123	8
0	82144	82.143	9
0	82265	82.264	2
0	82548	82.547	4
0	82654	82.653	2
0	82729	82.728	1
0	82907	82.906	3
0	82962	82.961	1
0	82979	82.978	2
0	83053	83.052	7
0	83095	83.094	3
0	83113	83.112	1
0	83196	83.195	5
0	83221	83.22	8
0	83247	83.246	16
0	83287	83.286	1
0	83406	83.405	9
0	83410	83.409	4
0	83419	83.418	3
0	83421	83.42	2
0	83688	83.687	7
0	83944	83.943	2
0	83969	83.968	1
0	84231	84.23	20
0	84397	84.396	6
0	84450	84.449	4
0	84477	84.476	3
0	84508	84.507	2
0	84940	84.939	1
0	84957	84.956	5
0	85038	85.037	22
0	85186	85.185	2
0	85188	85.187	2
0	85218	85.217	12
0	85274	85.273	16
0	85342	85.341	15
0	85344	85.343	2
0	85473	85.472	8
0	85475	85.474	2
0	85709	85.708	11
0	85877	85.876	1
0	86020	86.019	2
0	86067	86.066	4
0	86207	86.206	5
0	86411	86.41	2
0	86523	86.522	14
0	86525	86.524	2
0	86533	86.532	5
0	86535	86.534	2
0	86827	86.826	3
0	87028	87.027	3
0	87049	87.048	7
0	87053	87.052	1
0	87087	87.086	1
0	87137	87.136	7
0	87154	87.153	4
0	87215	87.214	27
0	87299	87.298	4
0	87406	87.405	4
0	87576	87.575	5
0	87578	87.577	2
0	87700	87.699	2
0	87746	87.745	15
0	87940	87.939	14
0	88006	88.005	4
0	88078	88.077	9
0	88210	88.209	18
0	88218	88.217	1
0	88243	88.242	7
0	88276	88.275	10
0	88400	88.399	19
0	88452	88.451	11
0	88710	88.709	2
0	88895	88.894	3
0	88899	88.898	3
0	89210	89.209	3
0	89292	89.291	10
0	89546	89.545	1
0	89581	89.58	2
0	89659	89.658	3
0	89700	89.699	6
0	89702	89.701	2
0	89775	89.774	2
0	89811	89.81	10
0	89960	89.959	2
0	90162	90.161	1
0	90170	90.169	8
0	90243	90.242	1
0	90287	90.286	14
0	90325	90.324	20
0	90598	90.597	4
0	90635	90.634	7
0	90682	90.681	6
0	90942	90.941	10
0	90950	90.949	5
0	90970	90.969	11
0	91013	91.012	16
0	91171	91.17	6
0	91279	91.278	10
0	91354	91.353	4
0	91553	91.552	2
0	91555	91.554	2
0	91557	91.556	2
0	91679	91.678	1
0	91730	91.729	1
0	91862	91.861	13
0	92070	92.069	1
0	92258	92.257	17
0	92262	92.261	1
0	92275	92.274	1
0	92318	92.317	1
0	92514	92.513	23
0	92516	92.515	2
0	92616	92.615	16
0	92722	92.721	5
0	92749	92.748	5
0	92751	92.75	2
0	92788	92.787	3
0	92895	92.894	5
0	92913	92.912	18
0	92978	92.977	8
0	93068	93.067	1
0	93183	93.182	6
0	93185	93.184	2
0	93203	93.202	6
0	93258	93.257	14
0	93314	93.313	15
0	93332	93.331	18
0	93509	93.508	4
0	93587	93.586	1
0	93694	93.693	10
0	93696	93.695	1
0	93837	93.836	10
0	94015	94.014	29
0	94096	94.095	7
0	94185	94.184	2
0	94334	94.333	1
0	94338	94.337	4
0	94622	94.621	17
0	94661	94.66	6
0	94755	94.754	10
0	94765	94.764	1
0	95094	95.093	5
0	95129	95.128	3
0	95314	95.313	5
0	95377	95.376	7
0	95381	95.38	1
0	95541	95.54	9
0	95948	95.947	1
0	96043	96.042	9
0	96095	96.094	8
0	96235	96.234	3
0	96304	96.303	1
0	96306	96.305	1
0	96488	96.487	6
0	96520	96.519	1
0	96568	96.567	10
0	96617	96.616	2
0	96676	96.675	26
0	96716	96.715	1
0	97020	97.019	7
0	97120	97.119	3
0	97185	97.184	1
0	97288	97.287	22
0	97530	97.529	19
0	97532	97.531	2
0	97571	97.57	12
0	97584	97.583	9
0	97868	97.867	11
0	98008	98.007	8
0	98095	98.094	1
0	98355	98.354	4
0	98384	98.383	5
0	98473	98.472	11
0	98532	98.531	1
0	98534	98.533	2
0	98587	98.586	9
0	98662	98.661	2
0	98914	98.913	19
0	98934	98.933	1
0	99059	99.058	1
0	99225	99.224	57
0	99248	99.247	15
0	99254	99.253	1
0	99456	99.455	2
0	99482	99.481	26
0	99488	99.487	1
0	99502	99.501	1
0	99754	99.753	16
0	99768	99.767	4
0	99983	99.982	7
0	100110	100.109	1
0	100317	100.316	2
0	100499	100.498	6
0	100693	100.692	11
0	101049	101.048	6
0	101135	101.134	4
0	101303	101.302	13
0	101305	101.304	2
0	101548	101.547	49
0	101674	101.673	5
0	101850	101.849	11
0	102180	102.179	1
0	102324	102.323	8
0	102330	102.329	2
0	102358	102.357	7
0	102364	102.363	6
0	102556	102.555	16
0	102620	102.619	1
0	102673	102.672	3
0	102792	102.791	7
0	102832	102.831	2
0	102879	102.878	5
0	103039	103.038	6
0	103118	103.117	1
0	103173	103.172	1
0	103209	103.208	1
0	103260	103.259	1
0	103272	103.271	3
0	103394	103.393	2
0	103495	103.494	4
0	103679	103.678	13
0	103794	103.793	1
0	103825	103.824	2
0	103881	103.88	12
0	104214	104.213	5
0	104460	104.459	4
0	104462	104.461	2
0	104489	104.488	2
0	104853	104.852	8
0	105002	105.001	1
0	105211	105.21	12
0	105657	105.656	2
0	105765	105.764	7
0	105767	105.766	2
0	105809	105.808	3
0	105833	105.832	14
0	106053	106.052	6
0	106560	106.559	6
0	106570	106.569	4
0	106744	106.743	14
0	106764	106.763	5
0	106777	106.776	13
0	106809	106.808	1
0	106858	106.857	6
0	107036	107.035	1
0	107050	107.049	10
0	107131	107.13	6
0	107156	107.155	19
0	107199	107.198	2
0	107413	107.412	6
0	107421	107.42	4
0	107538	107.537	3
0	107588	107.587	13
0	107805	107.804	3
0	107857	107.856	15
0	107859	107.858	2
0	107971	107.97	11
0	107984	107.983	1
0	108162	108.161	6
0	108269	108.268	1
0	108398	108.397	4
0	108446	108.445	3
0	108512	108.511	5
0	108657	108.656	3
0	108739	108.738	16
0	108804	108.803	12
0	108995	108.994	2
0	109028	109.027	12
0	109176	109.175	4
0	109181	109.18	3
0	109214	109.213	5
0	109327	109.326	3
0	109329	109.328	2
0	109379	109.378	17
0	109591	109.59	1
0	109597	109.596	3
0	109686	109.685	17
0	109703	109.702	8
0	109737	109.736	3
0	109743	109.742	1
0	109867	109.866	1
0	109942	109.941	12
0	110165	110.164	4
0	110300	110.299	1
0	110343	110.342	7
0	110420	110.419	1
0	110462	110.461	4
0	110592	110.591	5
0	110736	110.735	1
0	111002	111.001	7
0	111125	111.124	1
0	111202	111.201	30
0	111301	111.3	33
0	111330	111.329	25
0	111397	111.396	17
0	111516	111.515	3
0	111576	111.575	12
0	111747	111.746	1
0	111753	111.752	6
0	111800	111.799	3
0	111866	111.865	10
0	112061	112.06	8
0	112071	112.07	1
0	112109	112.108	11
0	112127	112.126	1
0	112177	112.176	3
0	112250	112.249	6
0	112356	112.355	20
0	112425	112.424	2
0	112427	112.426	2
0	112429	112.428	2
0	112446	112.445	9
0	112487	112.486	1
0	112591	112.59	2
0	112886	112.885	1
0	113054	113.053	1
0	113162	113.161	1
0	113368	113.367	2
0	113422	113.421	19
0	113424	113.423	2
0	113432	113.431	6
0	113440	113.439	4
0	113444	113.443	4
0	113451	113.45	1
0	113549	113.548	1
0	113628	113.627	10
0	113654	113.653	26
0	113656	113.655	2
0	113731	113.73	2
0	113887	113.886	7
0	114093	114.092	15
0	114310	114.309	8
0	114318	114.317	8
0	114334	114.333	7
0	114364	114.363	1
0	114402	114.401	1
0	114406	114.405	3
0	114602	114.601	1
0	114666	114.665	1
0	114679	114.678	1
0	114775	114.774	2
0	114823	114.822	7
0	114877	114.876	12
0	114903	114.902	1
0	114998	114.997	28
0	115015	115.014	2
0	115217	115.216	18
0	115476	115.475	4
0	115480	115.479	1
0	115742	115.741	2
0	115786	115.785	2
0	115923	115.922	19
0	116049	116.048	11
0	116106	116.105	8
0	116173	116.172	11
0	116236	116.235	1
0	116291	116.29	16
0	116456	116.455	3
0	116508	116.507	6
0	116597	116.596	1
0	116610	116.609	6
0	116650	116.649	4
0	116652	116.651	2
0	116729	116.728	1
0	116731	116.73	2
0	116818	116.817	2
0	116844	116.843	13
0	117577	117.576	1
0	117666	117.665	1
0	117923	117.922	1
0	117925	117.924	2
0	117933	117.932	8
0	117935	117.934	2
0	117985	117.984	2
0	118069	118.068	15
0	118087	118.086	7
0	118124	118.123	4
0	118173	118.172	4
0	119027	119.026	4
0	119062	119.061	2
0	119188	119.187	1
0	119271	119.27	25
0	119460	119.459	4
0	119541	119.54	25
0	119543	119.542	1
0	119545	119.544	2
0	119685	119.684	33
0	119788	119.787	20
0	119803	119.802	2
0	120045	120.044	10
0	120061	120.06	7
0	120147	120.146	2
0	120205	120.204	20
0	120259	120.258	13
0	120486	120.485	1
0	120557	120.556	1
0	120660	120.659	21
0	120676	120.675	4
0	120920	120.919	8
0	120922	120.921	2
0	121005	121.004	13
0	121007	121.006	2
0	121073	121.072	2
0	121089	121.088	3
0	121110	121.109	3
0	121119	121.118	2
0	121215	121.214	25
0	121373	121.372	1
0	121406	121.405	29
0	121502	121.501	1
0	121531	121.53	5
0	121557	121.556	15
0	121573	121.572	16
0	121583	121.582	1
0	121589	121.588	6
0	121706	121.705	1
0	122074	122.073	12
0	122148	122.147	2
0	122252	122.251	2
0	122365	122.364	6
0	122410	122.409	13
0	122427	122.426	9
0	122538	122.537	5
0	122570	122.569	20
0	122635	122.634	21
0	122657	122.656	5
0	122722	122.721	3
0	123089	123.088	1
0	123183	123.182	3
0	123239	123.238	5
0	123478	123.477	1
0	123730	123.729	20
0	123795	123.794	10
0	123960	123.959	1
0	124237	124.236	10
0	124243	124.242	5
0	124341	124.34	1
0	124347	124.346	6
0	124467	124.466	9
0	124538	124.537	11
0	124576	124.575	3
0	124614	124.613	4
0	124785	124.784	3
0	124861	124.86	1
0	124894	124.893	1
0	124916	124.915	22
0	125209	125.208	10
0	125227	125.226	13
0	125393	125.392	8
0	125617	125.616	1
0	125636	125.635	5
0	125690	125.689	1
0	125718	125.717	1
0	125841	125.84	1
0	125857	125.856	2
0	125873	125.872	12
0	125921	125.92	27
0	125941	125.94	6
0	126012	126.011	10
0	126132	126.131	3
0	126565	126.564	2
0	126653	126.652	6
0	126655	126.654	2
0	126760	126.759	3
0	126937	126.936	1
0	126994	126.993	9
0	127205	127.204	1
0	127245	127.244	9
0	127424	127.423	1
0	127499	127.498	4
0	127619	127.618	19
0	127731	127.73	1
0	127809	127.808	1
0	127856	127.855	14
0	127951	127.95	4
0	128003	128.002	6
0	128095	128.094	13
0	128160	128.159	5
0	128208	128.207	1
0	128266	128.265	3
0	128274	128.273	8
0	128297	128.296	7
0	128299	128.298	1
0	128323	128.322	6
0	128399	128.398	10
0	128415	128.414	3
0	128583	128.582	17
0	128613	128.612	9
0	128653	128.652	1
0	128748	128.747	6
0	128775	128.774	3
0	128912	128.911	12
0	128976	128.975	1
0	128978	128.977	1
0	129195	129.194	14
0	129506	129.505	8
0	129534	129.533	5
0	129937	129.936	4
0	130034	130.033	7
0	130063	130.062	11
0	130216	130.215	7
0	130218	130.217	2
0	130220	130.219	2
0	130484	130.483	1
0	130486	130.485	2
0	130836	130.835	3
0	131306	131.305	1
0	131320	131.319	7
0	131328	131.327	8
0	131424	131.423	4
0	131472	131.471	1
0	131476	131.475	4
0	131658	131.657	6
0	131670	131.669	3
0	131750	131.749	1
0	131949	131.948	3
0	131975	131.974	1
0	132027	132.026	8
0	132108	132.107	12
0	132116	132.115	8
0	132234	132.233	10
0	132381	132.38	2
0	132459	132.458	30
0	132583	132.582	2
0	132631	132.63	1
0	132667	132.666	9
0	132770	132.769	1
0	133094	133.093	1
0	133294	133.293	26
0	133318	133.317	24
0	133428	133.427	6
0	133462	133.461	2
0	133471	133.47	4
0	133533	133.532	1
0	133655	133.654	3
0	133665	133.664	10
0	133838	133.837	1
0	134072	134.071	14
0	134076	134.075	1
0	134097	134.096	19
0	134131	134.13	5
0	134227	134.226	12
0	134238	134.237	6
0	134315	134.314	7
0	134365	134.364	2
0	134380	134.379	6
0	134392	134.391	1
0	134398	134.397	6
0	134743	134.742	1
0	134851	134.85	2
0	135075	135.074	6
0	135096	135.095	5
0	135098	135.097	2
0	135100	135.099	2
0	135283	135.282	5
0	135324	135.323	2
0	135518	135.517	2
0	135580	135.579	6
0	135607	135.606	1
0	135639	135.638	5
0	135655	135.654	5
0	135694	135.693	2
0	135699	135.698	1
0	135765	135.764	4
0	136047	136.046	1
0	136127	136.126	1
0	136352	136.351	7
0	136421	136.42	16
0	136503	136.502	11
0	136547	136.546	2
0	136900	136.899	1
0	136965	136.964	3
0	137028	137.027	36
0	137167	137.166	6
0	137195	137.194	1
0	137209	137.208	14
0	137410	137.409	1
0	137412	137.411	2
0	137498	137.497	1
0	137542	137.541	5
0	137695	137.694	2
0	137717	137.716	8
0	137782	137.781	5
0	137934	137.933	6
0	138253	138.252	1
0	138255	138.254	1
0	138380	138.379	1
0	138508	138.507	8
0	138821	138.82	2
0	138897	138.896	17
0	138954	138.953	5
0	139058	139.057	18
0	139069	139.068	3
0	139071	139.07	2
0	139111	139.11	1
0	139159	139.158	22
0	139165	139.164	2
0	139174	139.173	3
0	139228	139.227	6
0	139525	139.524	15
0	139574	139.573	1
0	139674	139.673	13
0	139695	139.694	17
0	140187	140.186	1
0	140210	140.209	5
0	140288	140.287	9
0	140290	140.289	2
0	140546	140.545	1
0	140649	140.648	1
0	140651	140.65	2
0	140712	140.711	13
0	140804	140.803	1
0	140930	140.929	3
0	140937	140.936	7
0	141319	141.318	6
0	141368	141.367	1
0	141373	141.372	5
0	141482	141.481	8
0	141672	141.671	1
0	141860	141.859	12
0	141862	141.861	1
0	141926	141.925	15
0	141954	141.953	2
0	142363	142.362	22
0	142646	142.645	6
0	142694	142.693	1
0	142808	142.807	5
0	142852	142.851	6
0	142908	142.907	6
0	142948	142.947	5
0	143052	143.051	19
0	143429	143.428	4
0	143573	143.572	12
0	143679	143.678	2
0	143732	143.731	25
0	143758	143.757	3
0	143806	143.805	15
0	143808	143.807	2
0	144087	144.086	1
0	144348	144.347	12
0	144360	144.359	8
0	144373	144.372	4
0	144624	144.623	2
0	144633	144.632	1
0	144739	144.738	1
0	144846	144.845	1
0	145051	145.05	10
0	145074	145.073	1
0	145340	145.339	9
0	145452	145.451	15
0	145540	145.539	1
0	145603	145.602	23
0	145716	145.715	1
0	145718	145.717	2
0	145871	145.87	21
0	145964	145.963	11
0	146131	146.13	19
0	146227	146.226	17
0	146244	146.243	16
0	146412	146.411	15
0	146426	146.425	3
0	146460	146.459	23
0	146470	146.469	5
0	146480	146.479	10
0	146563	146.562	8
0	146667	146.666	3
0	146741	146.74	1
0	146784	146.783	1
0	146815	146.814	13
0	146973	146.972	11
0	146990	146.989	2
0	147202	147.201	1
0	147246	147.245	1
0	147280	147.279	5
0	147321	147.32	4
0	148082	148.081	2
0	148245	148.244	7
0	148259	148.258	1
0	148295	148.294	18
0	148498	148.497	5
0	148547	148.546	14
0	148555	148.554	2
0	148616	148.615	4
0	148630	148.629	6
0	148679	148.678	7
0	148686	148.685	4
0	148919	148.918	9
0	148923	148.922	2
0	148930	148.929	7
0	149042	149.041	8
0	149054	149.053	2
0	149056	149.055	2
0	149089	149.088	5
0	149109	149.108	20
0	149139	149.138	2
0	149664	149.663	3
0	149760	149.759	8
0	149776	149.775	13
0	149780	149.779	1
0	149782	149.781	2
0	149796	149.795	1
0	149889	149.888	15
0	149924	149.923	3
0	150078	150.077	4
0	150126	150.125	5
0	150223	150.222	2
0	150314	150.313	5
0	150449	150.448	1
0	150455	150.454	6
0	150680	150.679	32
0	150855	150.854	2
0	151009	151.008	9
0	151015	151.014	1
0	151060	151.059	11
0	151151	151.15	26
0	151262	151.261	5
0	151624	151.623	6
0	151657	151.656	2
0	151705	151.704	1
0	151916	151.915	6
0	152175	152.174	18
0	152299	152.298	18
0	152561	152.56	1
0	152737	152.736	21
0	153024	153.023	5
0	153026	153.025	2
0	153087	153.086	11
0	153146	153.145	2
0	153148	153.147	2
0	153259	153.258	8
0	153486	153.485	8
0	153501	153.5	8
0	153586	153.585	1
0	153605	153.604	6
0	153615	153.614	4
0	153652	153.651	2
0	153699	153.698	45
0	153873	153.872	15
0	153875	153.874	2
0	153877	153.876	2
0	154085	154.084	2
0	154093	154.092	2
0	154107	154.106	3
0	154162	154.161	1
0	154337	154.336	1
0	154530	154.529	9
0	154585	154.584	4
0	154795	154.794	3
0	154987	154.986	15
0	155277	155.276	6
0	155429	155.428	10
0	155431	155.43	2
0	155482	155.481	4
0	155484	155.483	2
0	155535	155.534	46
0	155587	155.586	8
0	155793	155.792	29
0	156010	156.009	1
0	156311	156.31	8
0	156333	156.332	8
0	156401	156.4	23
0	156405	156.404	4
0	156475	156.474	6
0	156477	156.476	2
0	156479	156.478	2
0	156500	156.499	2
0	156506	156.505	2
0	156532	156.531	18
0	156692	156.691	1
0	156773	156.772	1
0	156810	156.809	6
0	156814	156.813	4
0	156915	156.914	3
0	157509	157.508	8
0	157515	157.514	2
0	157754	157.753	7
0	157761	157.76	7
0	157763	157.762	2
0	157834	157.833	1
0	157952	157.951	1
0	158032	158.031	9
0	158057	158.056	3
0	158084	158.083	19
0	158098	158.097	5
0	158193	158.192	10
0	158204	158.203	2
0	158215	158.214	2
0	158454	158.453	1
0	158458	158.457	1
0	158789	158.788	6
0	159018	159.017	9
0	159151	159.15	15
0	159179	159.178	5
0	159206	159.205	2
0	159323	159.322	15
0	159363	159.362	2
0	159376	159.375	13
0	159427	159.426	2
0	159429	159.428	2
0	159460	159.459	2
0	159462	159.461	2
0	159654	159.653	10
0	159674	159.673	7
0	159676	159.675	2
0	159704	159.703	5
0	159847	159.846	3
0	159882	159.881	22
0	159884	159.883	2
0	160113	160.112	1
0	160161	160.16	15
0	160292	160.291	19
0	160570	160.569	12
0	160727	160.726	1
0	160731	160.73	1
0	160851	160.85	14
0	161008	161.007	6
0	161319	161.318	3
0	161461	161.46	8
0	161482	161.481	13
0	161492	161.491	6
0	161531	161.53	1
0	161791	161.79	13