file 1574514 1526132717                                         
version 2
run General-0-20180512-15:45:09-6585
attr configname General
attr datetime 20180512-15:45:09
attr experiment General
attr inifile omnetpp.ini
attr iterationvars ""
attr iterationvarsf ""
attr measurement ""
attr network Network
attr processid 6585
attr repetition 0
attr replication #0
attr resultdir results
attr runnumber 0
attr seedset 0

vector 0 Network.backbone0 HopCount ETV
vector 1 Network.backbone0 "" ETV
vector 2 Network.edge2 HopCount ETV
vector 3 Network.edge2 "" ETV
vector 4 Network.backbone4 HopCount ETV
vector 5 Network.backbone4 "" ETV
vector 6 Network.edge1 HopCount ETV
vector 7 Network.edge1 "" ETV
vector 8 Network.backbone3 HopCount ETV
vector 9 Network.backbone3 "" ETV
vector 10 Network.backbone1 HopCount ETV
vector 11 Network.backbone1 "" ETV
vector 12 Network.backbone2 HopCount ETV
vector 13 Network.backbone2 "" ETV
vector 14 Network.edge0 HopCount ETV
vector 15 Network.edge0 "" ETV
0	926 89199 1 479434 0 479.433 4774 0 57 32377 469539
1	90125 106923 1 479434 0 479.433 4774 0 0.057 32.377 0.46953899999998
2	197048 88088 7 479441 0.006 479.44 4622 1 194 97207 4102355
3	285136 103207 7 479441 0.006 479.44 4622 0.001 0.194 97.207000000001 4.102355
4	388343 86318 8 479359 0.007 479.358 4625 1 66 30769 446889
5	474661 103512 8 479359 0.007 479.358 4625 0.001 0.066 30.769 0.44688899999998
6	578173 90163 96 479487 0.095 479.486 4727 1 220 104362 4801918
7	668336 105647 96 479487 0.095 479.486 4727 0.001 0.22 104.362 4.801918
8	773983 88309 117 479332 0.116 479.331 4704 1 90 41259 686551
9	862292 105299 117 479332 0.116 479.331 4704 0.001 0.09 41.259000000001 0.686551
10	967591 93750 273 479108 0.272 479.107 4745 1 82 42093 714397
11	1061341 110843 273 479108 0.272 479.107 4745 0.001 0.082 42.093 0.71439700000001
12	1172184 91416 276 479341 0.275 479.34 4635 1 70 34087 574533
13	1263600 108471 276 479341 0.275 479.34 4635 0.001 0.07 34.087 0.57453299999999
14	1372071 93578 281 479433 0.28 479.432 4662 1 230 97332 4073446
15	1465649 108864 281 479433 0.28 479.432 4662 0.001 0.23 97.332000000001 4.073446

