file 15837 1528503275                                           
version 2
run General-0-20180609-02:13:40-4350
attr configname General
attr datetime 20180609-02:13:40
attr experiment General
attr inifile omnetpp.ini
attr iterationvars ""
attr iterationvarsf ""
attr measurement ""
attr network Network
attr processid 4350
attr repetition 0
attr replication #0
attr resultdir results
attr runnumber 0
attr seedset 0

vector 0 Network.laptop0 HopCount ETV
vector 1 Network.laptop0 "" ETV
0	422 13 38 38 0.15 0.15 1 12 12 12 144
1	435 15 38 38 0.15 0.15 1 0.15 0.15 0.15 0.0225
vector 2 Network.pc0 HopCount ETV
vector 3 Network.pc0 "" ETV
vector 4 Network.edge0 HopCount ETV
vector 5 Network.edge0 "" ETV
0	578 2256 877 28256 3.259 131.405000000001 115 4 419 9954 1709752
1	2834 2681 877 28256 3.259 131.405000000001 115 3.259 131.405 7790.026 689556.24902801
2	5515 2310 111 28300 0.54 131.980000000001 119 4 398 8751 1232991
3	7825 2746 111 28300 0.54 131.980000000001 119 0.54 131.98 7825.153 685220.64145501
4	10571 2387 118 28570 0.583 132.472000000001 121 5 199 6713 559595
5	12958 2878 118 28570 0.583 132.472000000001 121 0.583 132.472 8292.663 745611.19187101

