version 2
run General-0-20180512-11:49:46-3802
attr configname General
attr datetime 20180512-11:49:46
attr experiment General
attr inifile omnetpp.ini
attr iterationvars ""
attr iterationvarsf ""
attr measurement ""
attr network Network
attr processid 3802
attr repetition 0
attr replication #0
attr resultdir results
attr runnumber 0
attr seedset 0

vector 0 Network.backbone0 HopCount ETV
0	1	0	0
vector 1 Network.edge2 HopCount ETV
vector 2 Network.backbone4 HopCount ETV
1	7	0.006	6
2	8	0.007	1
vector 3 Network.edge1 HopCount ETV
vector 4 Network.backbone3 HopCount ETV
vector 5 Network.backbone1 HopCount ETV
vector 6 Network.backbone2 HopCount ETV
vector 7 Network.edge0 HopCount ETV
0	113	0.112	1
0	222	0.221	4
0	443	0.442	1
0	506	0.505	10
0	797	0.796	1
0	987	0.986	1
0	1175	1.174	12
0	1609	1.608	1
0	1611	1.61	2
0	1628	1.627	9
0	1630	1.629	2
0	1639	1.638	9
0	1665	1.664	2
0	1772	1.771	4
0	2012	2.011	15
0	2045	2.044	14
0	2184	2.183	6
0	2186	2.185	1
0	2216	2.215	27
0	2365	2.364	1
0	2424	2.423	8
0	2609	2.608	1
0	2747	2.746	1
0	2836	2.835	6
0	2967	2.966	1
0	3037	3.036	7
0	3051	3.05	9
0	3217	3.216	1
0	3384	3.383	1
0	3498	3.497	4
0	3539	3.538	22
0	3558	3.557	19
0	3568	3.567	9
0	3610	3.609	5
0	3634	3.633	3
0	3856	3.855	1
0	3982	3.981	5
0	4109	4.108	12
0	4204	4.203	4
0	4373	4.372	4
0	4494	4.493	19
0	4623	4.622	1
0	4672	4.671	1
0	4696	4.695	14
0	4702	4.701	5
0	4778	4.777	17
0	4867	4.866	16
0	4885	4.884	18
0	5492	5.491	6
0	5653	5.652	6
0	5726	5.725	9
0	5788	5.787	11
0	5797	5.796	3
0	5922	5.921	1
0	6061	6.06	24
0	6411	6.41	1
0	6886	6.885	31
0	6892	6.891	1
0	6904	6.903	1
0	7074	7.073	2
0	7126	7.125	7
0	7274	7.273	2
0	7507	7.506	5
0	7618	7.617	10
0	7632	7.631	14
0	7634	7.633	2
0	7664	7.663	1
0	7878	7.877	6
0	8240	8.239	8
0	8613	8.612	3
0	8650	8.649	1
0	8719	8.718	5
0	8841	8.84	16
0	8852	8.851	11
0	8856	8.855	1
0	9022	9.021	1
0	9024	9.023	2
0	9553	9.552	4
0	9653	9.652	10
0	10035	10.034	4
0	10037	10.036	2
0	10064	10.063	1
0	10091	10.09	5
0	10337	10.336	1
0	10387	10.386	8
0	10484	10.483	1
0	10518	10.517	1
0	10746	10.745	17
0	10839	10.838	50
0	10922	10.921	10
0	11020	11.019	12
0	11039	11.038	9
0	11202	11.201	8
0	11345	11.344	1
0	11600	11.599	5
0	11616	11.615	3
0	11806	11.805	13
0	11808	11.807	2
0	11818	11.817	10
0	11965	11.964	8
0	12179	12.178	14
0	12283	12.282	8
0	12285	12.284	2
0	12291	12.29	6
0	12410	12.409	5
0	12488	12.487	5
0	12697	12.696	12
0	12775	12.774	1
0	12777	12.776	1
0	12948	12.947	11
0	12968	12.967	4
0	13145	13.144	3
0	13343	13.342	2
0	13470	13.469	3
0	13606	13.605	7
0	13627	13.626	2
0	13753	13.752	1
0	13819	13.818	1
0	14175	14.174	22
0	14177	14.176	2
0	14297	14.296	1
0	14360	14.359	1
0	14572	14.571	2
0	14726	14.725	1
0	14843	14.842	8
0	14845	14.844	2
0	14886	14.885	17
0	14896	14.895	10
0	14921	14.92	9
0	14956	14.955	1
0	15091	15.09	9
0	15366	15.365	3
0	15385	15.384	1
0	15571	15.57	3
0	15589	15.588	1
0	15598	15.597	9
0	15656	15.655	7
0	15709	15.708	11
0	15720	15.719	5
0	15783	15.782	1
0	15839	15.838	6
1	111	0.11	15
1	218	0.217	101
1	320	0.319	3
1	596	0.595	19
1	737	0.736	21
1	897	0.896	17
1	971	0.97	50
1	1091	1.09	2
1	1213	1.212	22
1	1251	1.25	7
1	1291	1.29	28
1	1458	1.457	3
1	1497	1.496	39
1	1663	1.662	3
1	1768	1.767	93
1	1788	1.787	4
1	1855	1.854	6
1	1980	1.979	125
1	2146	2.145	51
1	2480	2.479	30
1	2557	2.556	23
1	2616	2.615	4
1	2829	2.828	5
1	2946	2.945	26
1	2963	2.962	8
1	3009	3.008	11
1	3011	3.01	2
1	3074	3.073	13
1	3096	3.095	7
1	3165	3.164	21
1	3246	3.245	10
1	3254	3.253	4
1	3338	3.337	2
1	3430	3.429	14
1	3470	3.469	40
1	3494	3.493	17
1	3747	3.746	8
1	3801	3.8	40
1	4188	4.187	61
1	4217	4.216	13
1	4577	4.576	75
1	4682	4.681	10
1	4704	4.703	2
1	4760	4.759	21
1	5018	5.017	16
1	5037	5.036	11
1	5200	5.199	1
1	5240	5.239	24
1	5255	5.254	10
1	5307	5.306	7
1	5369	5.368	44
1	5505	5.504	12
1	5507	5.506	2
1	5557	5.556	9
1	5590	5.589	15
1	5647	5.646	25
1	5847	5.846	34
1	5874	5.873	13
1	5913	5.912	39
1	6162	6.161	36
1	6186	6.185	3
1	6469	6.468	43
1	6488	6.487	16
1	6589	6.588	14
1	6721	6.72	18
1	6838	6.837	29
1	7045	7.044	5
1	7054	7.053	9
1	7111	7.11	30
1	7132	7.131	1
1	7169	7.168	33
1	7182	7.181	9
1	7272	7.271	66
1	7303	7.302	29
1	7534	7.533	27
1	7822	7.821	18
1	7841	7.84	19
1	7872	7.871	13
1	7981	7.98	14
1	8276	8.275	14
1	8493	8.492	4
1	8556	8.555	33
1	8786	8.785	67
1	8825	8.824	18
1	8889	8.888	7
1	8914	8.913	25
1	8974	8.973	42
1	9065	9.064	31
1	9067	9.066	2
1	9152	9.151	17
1	9336	9.335	22
1	9549	9.548	7
1	9619	9.618	30
1	9738	9.737	35
1	9771	9.77	33
1	9815	9.814	44
1	9896	9.895	31
1	10031	10.03	18
1	10153	10.152	46
1	10359	10.358	22
1	10417	10.416	21
1	10453	10.452	15
1	10455	10.454	2
1	10618	10.617	99
1	10715	10.714	97
1	11126	11.125	21
1	11291	11.29	9
1	11293	11.292	2
1	11317	11.316	24
1	11376	11.375	21
1	11439	11.438	63
1	11465	11.464	3
1	11496	11.495	9
1	11621	11.62	5
1	11702	11.701	2
1	11716	11.715	5
1	11835	11.834	17
1	11868	11.867	15
1	11870	11.869	2
1	11886	11.885	16
1	11918	11.917	32
1	12397	12.396	63
1	12399	12.398	2
1	12569	12.568	57
1	12571	12.57	2
1	12711	12.71	14
1	12736	12.735	6
1	12769	12.768	33
1	12847	12.846	41
1	12906	12.905	35
1	13028	13.027	14
1	13262	13.261	29
1	13292	13.291	11
1	13341	13.34	48
1	13484	13.483	14
1	13522	13.521	7
1	13625	13.624	9
1	13701	13.7	6
1	13746	13.745	20
1	13748	13.747	2
1	13993	13.992	3
1	14048	14.047	12
1	14087	14.086	19
1	14099	14.098	12
1	14143	14.142	44
1	14145	14.144	2
1	14149	14.148	4
1	14153	14.152	4
1	14408	14.407	48
1	14570	14.569	51
1	14908	14.907	12
1	14912	14.911	4
1	14943	14.942	2
1	14987	14.986	31
1	15182	15.181	11
1	15217	15.216	35
1	15256	15.255	39
1	15428	15.427	40
1	15432	15.431	4
1	15526	15.525	36
1	15647	15.646	2
1	15649	15.648	2
1	15902	15.901	26
2	112	0.111	1
2	454	0.453	8
2	485	0.484	10
2	496	0.495	11
2	511	0.51	4
2	655	0.654	4
2	738	0.737	1
2	740	0.739	1
2	747	0.746	7
2	779	0.778	7
2	898	0.897	1
2	1176	1.175	1
2	1252	1.251	1
2	1385	1.384	3
2	1455	1.454	20
2	1498	1.497	1
2	1588	1.587	5
2	1608	1.607	14
2	1617	1.616	6
2	1779	1.778	7
2	1789	1.788	1
2	1797	1.796	4
2	1981	1.98	1
2	2050	2.049	5
2	2364	2.363	1
2	2617	2.616	1
2	2642	2.641	18
2	2664	2.663	2
2	2705	2.704	9
2	2746	2.745	5
2	2830	2.829	1
2	2947	2.946	1
2	2964	2.963	1
2	3042	3.041	2
2	3081	3.08	1
2	3123	3.122	11
2	3255	3.254	1
2	3298	3.297	24
2	3573	3.572	5
2	3584	3.583	11
2	3605	3.604	21
2	3631	3.63	6
2	3635	3.634	1
2	3660	3.659	2
2	3815	3.814	4
2	4281	4.28	10
2	4620	4.619	13
2	4631	4.63	8
2	4652	4.651	2
2	4671	4.67	9
2	4761	4.76	1
2	4789	4.788	11
2	4895	4.894	7
2	5135	5.134	6
2	5193	5.192	8
2	5199	5.198	2
2	5214	5.213	2
2	5241	5.24	1
2	5243	5.242	2
2	5245	5.244	2
2	5370	5.369	1
2	5390	5.389	4
2	5493	5.492	1
2	5599	5.598	3
2	6014	6.013	4
2	6030	6.029	4
2	6062	6.061	1
2	6117	6.116	5
2	6126	6.125	9
2	6183	6.182	1
2	6187	6.186	1
2	6373	6.372	11
2	6575	6.574	10
2	6590	6.589	1
2	6598	6.597	2
2	6803	6.802	6
2	6993	6.992	22
2	7010	7.009	7
2	7069	7.068	1
2	7071	7.07	2
2	7131	7.13	5
2	7334	7.333	4
2	7502	7.501	3
2	7748	7.747	1
2	7842	7.841	1
2	7933	7.932	15
2	8144	8.143	2
2	8146	8.145	2
2	8200	8.199	54
2	8292	8.291	5
2	8294	8.293	2
2	8441	8.44	3
2	8470	8.469	18
2	8570	8.569	4
2	8610	8.609	18
2	8668	8.667	3
2	8679	8.678	11
2	8792	8.791	2
2	9034	9.033	10
2	9098	9.097	10
2	9129	9.128	2
2	9276	9.275	5
2	9428	9.427	6
2	9454	9.453	25
2	9507	9.506	2
2	9627	9.626	1
2	9693	9.692	16
2	10069	10.068	5
2	10092	10.091	1
2	10213	10.212	16
2	10360	10.359	1
2	10519	10.518	1
2	10762	10.761	15
2	10781	10.78	1
2	10887	10.886	20
2	10948	10.947	5
2	11030	11.029	10
2	11056	11.055	17
2	11209	11.208	7
2	11211	11.21	2
2	11448	11.447	7
2	11639	11.638	15
2	11836	11.835	1
2	11942	11.941	14
2	12468	12.467	11
2	12712	12.711	1
2	12721	12.72	9
2	12776	12.775	1
2	13142	13.141	15
2	13273	13.272	9
2	13293	13.292	1
2	13436	13.435	1
2	13545	13.544	9
2	13549	13.548	4
2	13607	13.606	1
2	13630	13.629	3
2	13644	13.643	3
2	13663	13.662	8
2	13835	13.834	16
2	13846	13.845	8
2	13976	13.975	6
2	13990	13.989	6
2	14022	14.021	9
2	14359	14.358	10
2	14614	14.613	9
2	14667	14.666	44
2	14762	14.761	16
2	14772	14.771	1
2	14998	14.997	1
2	15077	15.076	8
2	15161	15.16	9
2	15572	15.571	1
2	15638	15.637	31
2	15698	15.697	10
2	15804	15.803	12
2	15816	15.815	12
2	15828	15.827	1
2	15842	15.841	3
2	15855	15.854	13
3	96	0.095	88
3	371	0.37	51
3	420	0.419	49
3	650	0.649	54
3	802	0.801	2
3	821	0.82	17
3	880	0.879	51
3	921	0.92	6
3	1163	1.162	53
3	1435	1.434	46
3	1572	1.571	27
3	1793	1.792	4
3	2178	2.177	19
3	2357	2.356	141
3	2375	2.374	4
3	2416	2.415	33
3	2612	2.611	3
3	2690	2.689	16
3	2741	2.74	6
3	2754	2.753	7
3	2905	2.904	8
3	2955	2.954	8
3	3190	3.189	25
3	3250	3.249	4
3	3274	3.273	9
3	3330	3.329	32
3	3351	3.35	13
3	3509	3.508	11
3	3656	3.655	21
3	3705	3.704	45
3	3760	3.759	13
3	3820	3.819	5
3	3976	3.975	70
3	4007	4.006	25
3	4009	4.008	2
3	4097	4.096	27
3	4114	4.113	5
3	4336	4.335	21
3	4340	4.339	4
3	4342	4.341	2
3	4475	4.474	102
3	4500	4.499	6
3	4607	4.606	21
3	4638	4.637	7
3	4849	4.848	60
3	4851	4.85	2
3	4888	4.887	1
3	5000	4.999	104
3	5022	5.021	4
3	5084	5.083	47
3	5129	5.128	45
3	5185	5.184	43
3	5297	5.296	42
3	5430	5.429	40
3	5459	5.458	28
3	5512	5.511	5
3	5596	5.595	6
3	5717	5.716	45
3	5741	5.74	8
3	5759	5.758	18
3	5932	5.931	10
3	6071	6.07	9
3	6180	6.179	18
3	6350	6.349	104
3	6408	6.407	6
3	6565	6.564	71
3	6703	6.702	22
3	6795	6.794	40
3	6797	6.796	2
3	6930	6.929	26
3	6971	6.97	4
3	7081	7.08	7
3	7136	7.135	1
3	7409	7.408	16
3	7445	7.444	8
3	7491	7.49	14
3	7558	7.557	7
3	7608	7.607	6
3	7688	7.687	24
3	7701	7.7	4
3	7891	7.89	13
3	7912	7.911	21
3	7957	7.956	1
3	8262	8.261	22
3	8287	8.286	11
3	8436	8.435	44
3	8438	8.437	2
3	8446	8.445	5
3	8452	8.451	6
3	8499	8.498	6
3	8709	8.708	30
3	8713	8.712	4
3	8803	8.802	1
3	8876	8.875	17
3	8878	8.877	2
3	8999	8.998	22
3	9088	9.087	21
3	9135	9.134	2
3	9185	9.184	2
3	9313	9.312	37
3	9422	9.421	6
3	9677	9.676	24
3	9703	9.702	10
3	9830	9.829	7
3	9921	9.92	3
3	9959	9.958	14
3	10042	10.041	3
3	10314	10.313	101
3	10507	10.506	17
3	10867	10.866	28
3	10943	10.942	1
3	11006	11.005	58
3	11008	11.007	2
3	11194	11.193	68
3	11266	11.265	29
3	11321	11.32	1
3	11458	11.457	10
3	11595	11.594	99
3	11793	11.792	54
3	11957	11.956	15
3	12274	12.273	32
3	12334	12.333	43
3	12405	12.404	6
3	12510	12.509	22
3	12685	12.684	97
3	12806	12.805	20
3	12964	12.963	16
3	12971	12.97	3
3	13172	13.171	27
3	13233	13.232	14
3	13413	13.412	25
3	13467	13.466	31
3	13641	13.64	5
3	13655	13.654	11
3	13726	13.725	25
3	13838	13.837	3
3	13901	13.9	55
3	13951	13.95	16
3	13970	13.969	2
3	14062	14.061	14
3	14068	14.067	6
3	14206	14.205	8
3	14292	14.291	82
3	14349	14.348	52
3	14467	14.466	40
3	14623	14.622	9
3	14746	14.745	1
3	14835	14.834	36
3	14869	14.868	1
3	15016	15.015	4
3	15109	15.108	18
3	15152	15.151	43
3	15284	15.283	28
3	15363	15.362	8
3	15669	15.668	13
3	15715	15.714	2
3	15867	15.866	12
4	117	0.116	4
4	522	0.521	11
4	530	0.529	8
4	739	0.738	1
4	800	0.799	3
4	804	0.803	2
4	989	0.988	2
4	1068	1.067	5
4	1089	1.088	21
4	1110	1.109	19
4	1263	1.262	11
4	1382	1.381	31
4	1388	1.387	3
4	1509	1.508	2
4	1525	1.524	9
4	1544	1.543	19
4	1784	1.783	5
4	1997	1.996	16
4	2024	2.023	11
4	2064	2.063	14
4	2085	2.084	15
4	2363	2.362	2
4	2371	2.37	6
4	2450	2.449	3
4	2624	2.623	7
4	2730	2.729	25
4	2848	2.847	12
4	2880	2.879	29
4	2897	2.896	17
4	3030	3.029	19
4	3039	3.038	2
4	3080	3.079	6
4	3112	3.111	1
4	3334	3.333	2
4	3336	3.335	2
4	3517	3.516	8
4	3620	3.619	10
4	3739	3.738	8
4	4011	4.01	2
4	4033	4.032	1
4	4127	4.126	3
4	4246	4.245	4
4	4282	4.281	1
4	4310	4.309	2
4	4739	4.738	10
4	4896	4.895	1
4	5026	5.025	4
4	5202	5.201	2
4	5299	5.298	2
4	5309	5.308	2
4	5484	5.483	25
4	5486	5.485	2
4	5543	5.542	31
4	5575	5.574	8
4	5733	5.732	7
4	5777	5.776	4
4	5794	5.793	6
4	5860	5.859	13
4	5919	5.918	6
4	6182	6.181	1
4	6383	6.382	10
4	6402	6.401	12
4	6855	6.854	17
4	6967	6.966	7
4	7003	7.002	10
4	7066	7.065	12
4	7068	7.067	2
4	7072	7.071	1
4	7119	7.118	8
4	7173	7.172	4
4	7206	7.205	2
4	7437	7.436	24
4	7477	7.476	27
4	7499	7.498	7
4	7713	7.712	12
4	7726	7.725	2
4	7747	7.746	10
4	7792	7.791	2
4	7802	7.801	3
4	7916	7.915	4
4	7918	7.917	2
4	7967	7.966	10
4	8489	8.488	3
4	8523	8.522	24
4	8882	8.881	4
4	9001	9	2
4	9003	9.002	2
4	9133	9.132	4
4	9181	9.18	29
4	9414	9.413	14
4	9429	9.428	1
4	9492	9.491	24
4	9580	9.579	27
4	9588	9.587	7
4	9626	9.625	7
4	9823	9.822	8
4	9834	9.833	4
4	10001	10	20
4	10044	10.043	2
4	10086	10.085	17
4	10396	10.395	5
4	10478	10.477	8
4	10490	10.489	6
4	10780	10.779	5
4	10789	10.788	8
4	10897	10.896	10
4	10941	10.94	19
4	11062	11.061	6
4	11237	11.236	26
4	11325	11.324	4
4	11347	11.346	2
4	11355	11.354	8
4	11441	11.44	2
4	11646	11.645	7
4	11700	11.699	11
4	11729	11.728	13
4	12155	12.154	24
4	12165	12.164	2
4	12191	12.19	12
4	12448	12.447	3
4	12512	12.511	2
4	12577	12.576	6
4	12786	12.785	6
4	12937	12.936	3
4	13264	13.263	2
4	13424	13.423	11
4	13435	13.434	11
4	13585	13.584	22
4	13599	13.598	14
4	13691	13.69	5
4	13797	13.796	1
4	14427	14.426	19
4	14737	14.736	3
4	14771	14.77	7
4	14941	14.94	20
4	14997	14.996	5
4	15080	15.079	3
4	15568	15.567	6
4	15583	15.582	11
4	15607	15.606	9
4	15645	15.644	7
4	15713	15.712	4
4	15755	15.754	7
4	15819	15.818	3
4	15827	15.826	8
5	273	0.272	51
5	309	0.308	2
5	440	0.439	20
5	442	0.441	2
5	475	0.474	21
5	507	0.506	1
5	708	0.707	53
5	716	0.715	8
5	796	0.795	4
5	823	0.822	2
5	1027	1.026	38
5	1029	1.028	2
5	1059	1.058	4
5	1351	1.35	5
5	1507	1.506	9
5	1514	1.513	5
5	1583	1.582	11
5	1594	1.593	6
5	1619	1.618	2
5	1675	1.674	10
5	1849	1.848	4
5	2185	2.184	1
5	2189	2.188	3
5	2361	2.36	4
5	2383	2.382	8
5	2483	2.482	3
5	2662	2.661	20
5	2674	2.673	10
5	2694	2.693	4
5	2696	2.695	2
5	2735	2.734	5
5	2851	2.85	3
5	2920	2.919	15
5	3144	3.143	16
5	3236	3.235	15
5	3332	3.331	2
5	3414	3.413	6
5	3416	3.415	2
5	3559	3.558	1
5	3625	3.624	5
5	3658	3.657	2
5	3707	3.706	2
5	3709	3.708	2
5	3711	3.71	2
5	3879	3.878	23
5	4070	4.069	26
5	4124	4.123	10
5	4242	4.241	2
5	4261	4.26	15
5	4308	4.307	14
5	4312	4.311	2
5	4314	4.313	2
5	4502	4.501	2
5	4650	4.649	12
5	4660	4.659	8
5	4662	4.661	2
5	4697	4.696	1
5	4721	4.72	10
5	4729	4.728	8
5	4886	4.885	1
5	5002	5.001	2
5	5212	5.211	2
5	5567	5.566	10
5	5666	5.665	8
5	5670	5.669	4
5	5672	5.671	2
5	5921	5.92	2
5	6032	6.031	2
5	6037	6.036	5
5	6390	6.389	3
5	6410	6.409	1
5	6415	6.414	1
5	6426	6.425	11
5	6494	6.493	6
5	6596	6.595	6
5	6610	6.609	12
5	6809	6.808	6
5	7033	7.032	23
5	7204	7.203	22
5	7330	7.329	27
5	7450	7.449	5
5	7551	7.55	17
5	7635	7.634	1
5	7697	7.696	9
5	7715	7.714	2
5	7724	7.723	9
5	7737	7.736	11
5	7776	7.775	28
5	7790	7.789	14
5	7804	7.803	2
5	7955	7.954	5
5	8486	8.485	2
5	8592	8.591	22
5	8655	8.654	5
5	8665	8.664	9
5	8855	8.854	3
5	8859	8.858	3
5	9183	9.182	2
5	9416	9.415	2
5	9468	9.467	14
5	9542	9.541	17
5	9643	9.642	2
5	9961	9.96	2
5	10324	10.323	10
5	10470	10.469	12
5	10483	10.482	5
5	10509	10.508	2
5	10517	10.516	8
5	10729	10.728	7
5	10747	10.746	1
5	10775	10.774	8
5	11085	11.084	23
5	11087	11.086	2
5	11105	11.104	18
5	11276	11.275	5
5	11282	11.281	6
5	11462	11.461	4
5	11613	11.612	13
5	11689	11.688	2
5	11849	11.848	13
5	12163	12.162	8
5	12242	12.241	1
5	12457	12.456	4
5	12483	12.482	15
5	12730	12.729	9
5	12774	12.773	5
5	12780	12.779	1
5	12871	12.87	2
5	13014	13.013	33
5	13037	13.036	9
5	13219	13.218	12
5	13357	13.356	5
5	13505	13.504	21
5	13616	13.615	3
5	13752	13.751	4
5	13766	13.765	4
5	13921	13.92	16
5	13929	13.928	8
5	13968	13.967	17
5	13984	13.983	8
5	14185	14.184	8
5	14196	14.195	11
5	14210	14.209	1
5	14296	14.295	4
5	14469	14.468	1
5	14479	14.478	10
5	14796	14.795	24
5	14849	14.848	4
5	15018	15.017	2
5	15082	15.081	1
5	15167	15.166	6
5	15171	15.17	3
5	15384	15.383	3
5	15437	15.436	5
5	15459	15.458	22
5	15463	15.462	4
5	15734	15.733	14
5	15782	15.781	27
5	15784	15.783	1
5	15792	15.791	8
5	15876	15.875	9
6	276	0.275	3
6	446	0.445	3
6	651	0.65	1
6	772	0.771	25
6	1180	1.179	4
6	1244	1.243	8
6	1389	1.388	1
6	1545	1.544	1
6	2025	2.024	1
6	2031	2.03	6
6	2070	2.069	6
6	2095	2.094	10
6	2159	2.158	13
6	2447	2.446	23
6	2484	2.483	1
6	2500	2.499	3
6	2597	2.596	9
6	3040	3.039	1
6	3059	3.058	7
6	3061	3.06	2
6	3089	3.088	8
6	3111	3.11	15
6	3128	3.127	3
6	3219	3.218	2
6	3221	3.22	2
6	3265	3.264	10
6	3408	3.407	23
6	3475	3.474	5
6	3477	3.476	2
6	3761	3.76	1
6	3804	3.803	3
6	3977	3.976	1
6	4012	4.011	1
6	4032	4.031	20
6	4191	4.19	3
6	4200	4.199	9
6	4283	4.282	1
6	4294	4.293	11
6	4315	4.314	1
6	4369	4.368	15
6	4586	4.585	9
6	4711	4.71	7
6	4887	4.886	1
6	5142	5.141	7
6	5197	5.196	4
6	5216	5.215	2
6	5300	5.299	1
6	5431	5.43	1
6	5622	5.621	23
6	5813	5.812	11
6	5861	5.86	1
6	6112	6.111	8
6	6181	6.18	1
6	6204	6.203	17
6	6387	6.386	4
6	6409	6.408	1
6	6414	6.413	3
6	6755	6.754	9
6	6894	6.893	2
6	7135	7.134	3
6	7492	7.491	1
6	7793	7.792	1
6	7795	7.794	2
6	7799	7.798	4
6	7859	7.858	17
6	7950	7.949	17
6	7956	7.955	1
6	7992	7.991	11
6	8220	8.219	20
6	8222	8.221	2
6	8232	8.231	10
6	8372	8.371	4
6	8566	8.565	10
6	8627	8.626	14
6	8656	8.655	1
6	8714	8.713	1
6	8790	8.789	4
6	8802	8.801	10
6	8932	8.931	18
6	9314	9.313	1
6	9493	9.492	1
6	9525	9.524	18
6	9581	9.58	1
6	9589	9.588	1
6	9863	9.862	15
6	9865	9.864	2
6	9918	9.917	22
6	9962	9.961	1
6	10039	10.038	2
6	10045	10.044	1
6	10107	10.106	15
6	10379	10.378	7
6	10391	10.39	4
6	10438	10.437	3
6	10722	10.721	7
6	10912	10.911	15
6	10942	10.941	1
6	11320	11.319	3
6	11487	11.486	22
6	11928	11.927	10
6	12241	12.24	28
6	12275	12.274	1
6	12445	12.444	7
6	12588	12.587	11
6	12779	12.778	2
6	12928	12.927	22
6	12932	12.931	4
6	12934	12.933	2
6	13103	13.102	26
6	13281	13.28	8
6	13345	13.344	2
6	13352	13.351	7
6	13515	13.514	10
6	13534	13.533	12
6	13536	13.535	2
6	13613	13.612	6
6	13632	13.631	2
6	13636	13.635	4
6	13686	13.685	23
6	13695	13.694	4
6	13762	13.761	9
6	13796	13.795	11
6	14013	14.012	20
6	14036	14.035	14
6	14207	14.206	1
6	14209	14.208	2
6	14468	14.467	1
6	14734	14.733	8
6	14745	14.744	8
6	14764	14.763	2
6	14797	14.796	1
6	14799	14.798	2
6	14868	14.867	3
6	14992	14.991	5
6	15050	15.049	32
6	15081	15.08	1
6	15168	15.167	1
6	15381	15.38	15
6	15490	15.489	27
6	15748	15.747	14
6	15833	15.832	5
7	281	0.28	5
7	307	0.306	26
7	317	0.316	8
7	571	0.57	41
7	577	0.576	6
7	792	0.791	13
7	829	0.828	6
7	915	0.914	17
7	986	0.985	15
7	1055	1.054	26
7	1063	1.062	4
7	1191	1.19	11
7	1236	1.235	23
7	1346	1.345	55
7	1516	1.515	2
7	1660	1.659	21
7	1837	1.836	40
7	1845	1.844	8
7	2013	2.012	1
7	2497	2.496	13
7	2534	2.533	34
7	2588	2.587	31
7	2606	2.605	9
7	2608	2.607	2
7	2824	2.823	70
7	2966	2.965	2
7	2998	2.997	31
7	3052	3.051	1
7	3125	3.124	2
7	3216	3.215	26
7	3383	3.382	32
7	3385	3.384	1
7	3731	3.73	20
7	3811	3.81	7
7	3855	3.854	35
7	3906	3.905	27
7	4044	4.043	11
7	4240	4.239	23
7	4271	4.27	10
7	4350	4.349	8
7	4354	4.353	4
7	4622	4.621	2
7	5210	5.209	8
7	5325	5.324	16
7	5386	5.385	16
7	5548	5.547	5
7	5656	5.655	3
7	5658	5.657	2
7	5773	5.772	14
7	5802	5.801	5
7	5943	5.942	11
7	5964	5.963	21
7	6010	6.009	46
7	6026	6.025	12
7	6104	6.103	33
7	6246	6.245	42
7	6362	6.361	12
7	6472	6.471	3
7	6681	6.68	71
7	6746	6.745	25
7	6891	6.89	5
7	6903	6.902	9
7	6958	6.957	28
7	6960	6.959	2
7	7040	7.039	7
7	7393	7.392	59
7	7413	7.412	4
7	7602	7.601	44
7	7663	7.662	28
7	8142	8.141	150
7	8368	8.367	74
7	8392	8.391	20
7	8484	8.483	14
7	8649	8.648	22
7	8807	8.806	4
7	8977	8.976	3
7	9021	9.02	18
7	9125	9.124	27
7	9127	9.126	2
7	9271	9.27	86
7	9400	9.399	64
7	9505	9.504	12
7	9641	9.64	14
7	9848	9.847	14
7	9945	9.944	24
7	9981	9.98	19
7	10013	10.012	12
7	10063	10.062	18
7	10197	10.196	44
7	10336	10.335	12
7	10372	10.371	12
7	10435	10.434	18
7	10458	10.457	3
7	10767	10.766	5
7	11271	11.27	5
7	11344	11.343	19
7	11624	11.623	3
7	11687	11.686	41
7	11711	11.71	9
7	11739	11.738	10
7	11853	11.852	4
7	12131	12.13	166
7	12213	12.212	22
7	12419	12.418	9
7	12438	12.437	19
7	12453	12.452	5
7	12869	12.868	22
7	12981	12.98	10
7	13077	13.076	40
7	13111	13.11	8
7	13127	13.126	16
7	13207	13.206	35
7	13388	13.387	31
7	13563	13.562	14
7	13785	13.784	19
7	13818	13.817	21
7	13905	13.904	4
7	13935	13.934	6
7	14198	14.197	2
7	14481	14.48	2
7	14519	14.518	38
7	14605	14.604	33
7	14725	14.724	58
7	14865	14.864	16
7	14955	14.954	12
7	15010	15.009	12
7	15012	15.011	2
7	15069	15.068	19
7	15327	15.326	43
7	15355	15.354	28
7	15388	15.387	3
7	15562	15.561	36
7	15588	15.587	5
7	15688	15.687	19

